9
Properties=species:S:1:pos:R:3:forces:R:3 energy=-4209.585374366816 pbc="F F F"
C        0.22756864      -0.41081193      -0.31955684       3.21071876       2.55991304      -0.94929676
C       -0.75598827       0.60112543      -0.87156019      -1.68153556       0.27199617       1.45873510
O        0.44638850      -0.24168362       1.07470839       1.32782744       0.72454205       1.08009360
H        0.02861918      -1.45181799      -0.53195251      -0.58411493      -0.86453383       0.08313721
H        1.17705592      -0.17662176      -0.97686437      -0.65761858      -0.66194894       1.12814424
H       -0.88640048       1.38367132      -0.07805050       0.07638498      -0.29727809      -0.05008212
H       -0.49093408       1.21968531      -1.73858784       0.05429961      -0.50696998      -0.69529101
H       -1.75890885       0.11116148      -0.89658069      -0.00520998       0.47017728      -0.63050978
H        1.14058522       0.48096184       1.35625014      -1.74075169      -1.69589775      -1.42493043
9
Properties=species:S:1:pos:R:3:forces:R:3 energy=-4209.529869474729 pbc="F F F"
C       -0.06958083       0.50979880       0.20454424      -0.00978156       0.21136126      -0.03528820
C       -0.67666296       0.02564276      -1.18545009       0.46114407       0.17199863       3.87273192
O        0.64235033      -0.50125764       0.85066905       3.10859168      -0.86765197       0.78022157
H        0.54897937       1.45484008       0.20239384      -0.49452322      -0.21108070      -0.51213615
H       -0.89945179       0.64285367       0.92010145      -0.67366412       0.89014445      -0.27164974
H       -1.18262374       0.89714156      -1.53768411      -0.28700556       0.88598558      -1.55508296
H        0.08115153      -0.56441019      -1.67528881       0.50116597       0.04011149      -1.17490136
H       -1.45513316      -0.64020999      -0.80484724      -0.41345219      -0.63390724      -0.36601188
H        1.60213264      -0.21543738       1.08090284      -2.19247513      -0.48696155      -0.73788320
9
Properties=species:S:1:pos:R:3:forces:R:3 energy=-4209.596495396922 pbc="F F F"
C        0.31311011       0.42118146       0.22569630      -1.01780855      -1.16590595       1.45474084
C       -1.21106539       0.05278095       0.67866094       1.11039715      -3.14158424      -0.34411363
O        0.86122196      -0.41082386      -0.78945955      -0.72777717       0.59275302      -0.46730407
H        0.34784006       1.50829017      -0.00812673       0.39106065       0.02938859       0.11615117
H        0.93015962       0.10690200       1.12570650      -0.24690734       0.93732323      -0.56035747
H       -1.21582019      -0.37723910       1.79097363      -0.24926344       1.23041330      -1.86691787
H       -2.05513378       0.74266173       0.42663740       0.49012905      -0.00225095       0.32538077
H       -1.38466127      -0.94948316       0.04570246       0.01697335       1.70929613       1.07988699
H        0.40624817      -0.15925148      -1.62591214       0.23319631      -0.18943313       0.26253327
9
Properties=species:S:1:pos:R:3:forces:R:3 energy=-4209.511191586497 pbc="F F F"
C       -0.30231098       0.25817332       0.44679243       2.18401049       0.13526167       0.11655185
C       -0.89155302      -0.04752607      -0.94430707      -0.36097205      -0.11979416       1.61936812
O        1.08251573      -0.16525719       0.48574458      -1.04358182       3.21040786       3.92323005
H       -0.33028023       1.30719561       0.85857534       0.26913859       0.31539517      -1.28550142
H       -0.80126968      -0.13010364       1.33969470      -0.85255419      -1.37209209       0.02787848
H       -1.49373803       0.81860310      -1.19223251      -0.91983566       0.23991404      -0.61414430
H       -0.12936279      -0.15754280      -1.72761983       0.39733636       0.12092895      -0.01260340
H       -1.46363343      -0.99786911      -0.86649759      -0.19324577       0.27867924      -0.38314695
H        1.26031356      -0.72868647      -0.19389404       0.51970394      -2.80870068      -3.39163254
9
Properties=species:S:1:pos:R:3:forces:R:3 energy=-4209.81296476377 pbc="F F F"
C       -0.24717837      -0.52427852       0.03832901       3.11891132       0.98151598       1.96781997
C       -0.82600150       0.69117330       0.67219681      -1.28192876       1.44891863      -2.41855570
O        0.94201100      -0.18667347      -0.68250170       0.66692119      -0.04512149      -0.25669851
H        0.01170114      -1.22969933       0.84775354       0.03015257      -0.45959858       0.34133514
H       -0.90079582      -1.05448001      -0.57585784      -1.55899109      -0.99780619      -1.87591355
H       -1.77967480       0.49628003       1.15451987      -0.28482233      -0.05731500       1.12101648
H       -0.06391385       1.28465992       1.15588889       0.40559166       0.13648423       1.30158974
H       -1.14011116       1.43343534      -0.13705391       0.21525715      -0.63492314       0.22396527
H        1.70702444       0.04270736      -0.07833859      -1.31109172      -0.37215450      -0.40455885
9
Properties=species:S:1:pos:R:3:forces:R:3 energy=-4209.811913896228 pbc="F F F"
C        0.09209018      -0.07705502      -0.61499259       0.33728385      -0.04266017       3.04533980
C       -0.37482883       1.23986119       0.09054692       1.45859796      -0.44685300      -1.26376525
O        0.24677457      -1.03368702       0.49152352       0.19242158       1.75632672       0.14390073
H       -0.65371672      -0.45943777      -1.27389674      -1.06601058      -0.31850621      -1.27721788
H        1.01696501       0.19797038      -1.18360215       0.09064582      -0.53570984       0.15288474
H       -1.39804654       1.23307637       0.48099484      -0.13475917      -0.20367191       0.42230497
H        0.42794016       1.55749028       0.81076527      -0.69500670      -0.32881366       0.05638899
H       -0.31355810       1.99280098      -0.70971288      -0.27429998       0.48551566      -0.18581117
H        0.37142230      -1.97140719       0.32265896       0.09112723      -0.36562760      -1.09402492
9
Properties=species:S:1:pos:R:3:forces:R:3 energy=-4209.382264896539 pbc="F F F"
C        0.15208173      -0.41211571      -0.29095231       0.63097053       0.19278015       0.72918325
C       -1.35803873       0.07630201      -0.46003597       3.31094240       3.14077501       2.01213743
O        1.11459726       0.34307570       0.60642044      -1.78765331      -0.32872120      -1.51121350
H       -0.08190898      -1.32008133       0.24395042       0.49915964      -1.42466150       0.25080513
H        0.80619404      -0.65852243      -1.18144025      -0.98626702       0.33864536       0.16710109
H       -1.34972106       1.07859812      -1.02056094      -0.59041578      -0.93957366       0.77666898
H       -2.03208356      -0.62582958      -0.84875959      -0.99962637      -1.64033887      -1.33111049
H       -1.65856602       0.14786400       0.65349923       0.01047535       0.63326303      -1.29955497
H        0.99297437      -0.06770982       1.47621898      -0.08758538       0.02783169       0.20598313
9
Properties=species:S:1:pos:R:3:forces:R:3 energy=-4209.486191130921 pbc="F F F"
C        0.13403964       0.55408054      -0.29986214       2.44249046      -1.49513494       1.29759985
C       -1.17542203      -0.08054059      -0.29278475       0.46148206      -2.34756695      -1.48526355
O        0.96818034      -0.41014407       0.46641802       0.05197924       0.66787163       1.16702052
H        0.66642247       0.68462702      -1.25443915      -0.05203889       0.10241144      -0.22688121
H        0.11391206       1.44980181       0.30360152       0.12635490       1.36251436      -0.08440050
H       -0.95200138      -1.19133214      -0.33852535      -0.50437857       0.69936904       0.23845555
H       -1.57361169       0.22953254       0.61428733      -1.74439690       0.10369941       2.31854798
H       -1.83745649       0.11244666      -1.09272954      -1.28250567       0.76251458      -1.41064214
H        0.62266793      -0.41895226       1.42621302       0.50101340       0.14432142      -1.81443650
9
Properties=species:S:1:pos:R:3:forces:R:3 energy=-4209.669318592879 pbc="F F F"
C       -0.12292209       0.00384328      -0.48511041      -2.25179975      -3.09196214      -2.54615584
C        0.15284000       1.24708666       0.16056139       1.08711215       4.81525788       2.91622646
O       -0.02246095      -1.13613965       0.33637014       0.44821244      -0.88666322       0.49477205
H       -1.21672596       0.00586350      -0.92206397       1.09267766       0.46062316       0.48547807
H        0.47035993      -0.17111816      -1.42284085       0.28114046       0.47969571       0.19645153
H        1.20573973       1.52817974       0.54804726      -0.74446225      -1.25000691      -0.39058793
H        0.04460008       2.12490109      -0.52213251      -0.38505872      -0.39649916      -0.29977391
H       -0.49848381       1.59371047       1.07259342       0.53520729      -1.09610536      -1.26203253
H       -0.00645270      -1.95486597      -0.22557523      -0.06302928       0.96566009       0.40562210
9
Properties=species:S:1:pos:R:3:forces:R:3 energy=-4209.641459656695 pbc="F F F"
C       -0.37173103      -0.01329080      -0.43868114       2.53196499      -0.86061285      -1.74210784
C       -0.85504337       0.45297917       0.86943867      -1.77872175      -3.54902849       1.74685883
O        1.10344540      -0.43799521      -0.45340450      -2.03511903       1.17001642       0.55227222
H       -0.76473275      -0.94057461      -0.88266433      -0.90178111      -0.08274265       0.38762453
H       -0.54896451       0.77804454      -1.19824794       0.19166994       0.13923593      -0.17509656
H       -1.94673118       0.61628629       1.01372927      -0.17160021      -0.35330955      -0.68622751
H       -0.61038212      -0.27187380       1.71240568      -0.06500810       0.22691248      -0.69192420
H       -0.50929995       1.34663204       1.22274898       1.84645944       3.29870256       0.67487619
H        1.48207886       0.18307884       0.19613985       0.38213579       0.01082615      -0.06627571
9
Properties=species:S:1:pos:R:3:forces:R:3 energy=-4209.596185786045 pbc="F F F"
C       -0.23128710      -0.55144094      -0.01982861       0.78021149       2.82822919      -0.64613870
C       -0.92127740       0.66939814       0.68708200      -0.09833907       1.36124655       1.15161241
O        1.08070341      -0.13155107      -0.56705430      -0.89747168      -0.45592128       1.63313962
H       -0.14938819      -1.36789799       0.70326604       0.36550167      -0.54323464       0.13710988
H       -0.99298620      -0.78487485      -0.77022768       0.16097543      -0.64907778      -0.77175858
H       -2.03413540       0.53469957       0.61732300       0.30314278      -0.04753071       0.08092483
H       -0.73562108       0.81212333       1.85221330       0.10800046      -0.29937992      -2.02400683
H       -0.73378808       1.71119128       0.16634730       0.03814032      -1.80082697       0.69150203
H        1.22458760      -0.22417138      -1.51891071      -0.76016146      -0.39350444      -0.25238461
9
Properties=species:S:1:pos:R:3:forces:R:3 energy=-4209.6925018437805 pbc="F F F"
C       -0.28339062      -0.03227151      -0.52602796      -0.33437136       1.89586254       0.90089392
C        0.15411112       1.27634317       0.20745627       2.25429743       0.51851028       1.23217482
O        0.12880612      -1.12793024       0.28076749      -0.48303043       0.53324168       0.15875328
H       -1.40330780       0.12915919      -0.66034356       0.47750318      -0.75040695      -0.01742278
H        0.19510374      -0.14268443      -1.49705992       0.15394845       0.30863579      -0.95879899
H        1.29717628       1.28957329       0.43919841      -1.31967072      -0.48076694      -0.31003905
H        0.03510945       2.37423385      -0.04496213      -0.56574018      -1.00799480      -1.25951537
H       -0.30781441       1.31724812       1.21084143      -0.12107375      -0.55468443       0.27350176
H       -0.32133734      -1.88944652      -0.10827137      -0.06186267      -0.46239717      -0.01954749
9
Properties=species:S:1:pos:R:3:forces:R:3 energy=-4209.585667562883 pbc="F F F"
C        0.26558782       0.47982633       0.27415151       1.20012143      -0.90825114      -2.03593773
C       -0.87919690       0.54465380      -0.68315962      -0.39825337      -0.24798694       0.12403659
O        0.58143394      -0.92879155       0.35569339       2.07677339       1.90446566      -3.68825362
H        1.08800793       0.96929281      -0.34468947      -0.05767146      -0.07073210       1.14004342
H        0.12320601       1.00304076       1.25600425       0.02801516      -0.29277146      -0.25760837
H       -1.10126836       1.57873821      -0.80047261      -1.13879242       1.55271189      -0.26681653
H       -0.59915079       0.19221278      -1.68007464       0.41670850      -0.30086936      -0.31000573
H       -1.71746293      -0.09686060      -0.37850287      -0.49349061       0.20942213       0.27254042
H        0.28818438      -1.11267008       1.17546008      -1.63341061      -1.84598862       5.02200149
9
Properties=species:S:1:pos:R:3:forces:R:3 energy=-4209.789716542593 pbc="F F F"
C       -0.10610189       0.08227574      -0.53174246      -0.49420728       1.07957059       0.28722780
C       -1.18777815       0.10676424       0.58023321      -0.58066302      -1.99383944      -0.38700212
O        1.18870699      -0.20345708      -0.05733650       0.83906957       0.92232382       0.42084062
H       -0.36477329      -0.63610277      -1.32460353      -0.02181494      -0.88395914       0.21974414
H       -0.21163597       0.98643370      -1.16550441       0.53093699       0.82231944       0.21998387
H       -0.93830120       0.73467486       1.51543862      -0.34119867      -0.81065887      -1.15209778
H       -2.21315656       0.32220025       0.13830249       0.76929644       0.51190918       0.38993472
H       -1.33632903      -1.03169234       0.77815079       0.34239829       1.49632634       0.77555733
H        1.61241263       0.59991795       0.39051934      -1.04381738      -1.14399196      -0.77418858
9
Properties=species:S:1:pos:R:3:forces:R:3 energy=-4209.471603511447 pbc="F F F"
C       -0.53332111      -0.18223203       0.14614082       3.08445385       1.20089158      -3.00552126
C       -0.21132251       1.14033113      -0.72110121       0.89232736      -0.35992320       1.10872094
O        0.62142465      -0.94330536       0.55538856       1.95331195       1.81067795      -0.85950815
H       -1.06437972       0.11979200       0.98075049      -1.71126277       0.65398947       2.34917872
H       -1.11248781      -0.73825940      -0.56521722      -0.98499294      -1.24935740      -0.26034953
H       -0.83970580       2.01195748      -0.47150864      -0.14071930       0.08152395       0.59946643
H        0.86009243       1.41119189      -0.45897604      -0.64934970       0.14431622      -0.36697985
H       -0.33652828       1.12720042      -1.82245278       0.31204610      -0.78419475      -0.04421353
H        1.50115705      -0.37674331       0.37279612      -2.75581456      -1.49792372       0.47920623
9
Properties=species:S:1:pos:R:3:forces:R:3 energy=-4209.848250815572 pbc="F F F"
C        0.20086494       0.40669935      -0.30152645      -1.13663316      -0.04146080      -0.63184115
C       -1.32290225      -0.05098307      -0.28650189      -0.17688316       1.16775118       0.90905173
O        1.06095051      -0.27922938       0.53163147       0.68089412      -0.56455500       1.20418279
H        0.61412427       0.36622066      -1.33188994      -0.27942599       0.27237006      -0.43623439
H        0.29777513       1.42932031       0.08081597      -0.32717499       0.68662320      -0.29679581
H       -2.02968111       0.88100057      -0.23231882       0.99810840      -1.29028115       0.11882234
H       -1.68923894      -0.60519202      -1.18171011       0.41888262      -0.14436934       0.19765542
H       -1.47345352      -0.67410095       0.66602000      -0.08363426       0.62673504      -0.92435355
H        0.80892322      -1.20518471       0.56729880      -0.09413357      -0.71281309      -0.14048744
9
Properties=species:S:1:pos:R:3:forces:R:3 energy=-4209.791210177461 pbc="F F F"
C        0.02334398       0.42890092       0.32854470      -1.64018830      -0.37356203       1.62435663
C       -1.29994785      -0.19878532      -0.15826962       1.70897747       1.22506042      -0.99467114
O        1.18446012      -0.14724507      -0.13686210       1.36322414      -1.48385278      -1.11230856
H        0.04567505       1.48979892       0.04348555       0.14884785       0.45532951       0.13135853
H       -0.06581314       0.31998818       1.47595150       0.38994994       0.62299404      -0.76390458
H       -1.43399624      -1.06001768       0.42207331      -0.85521615      -1.93692312       1.07799018
H       -2.17083926       0.44794630      -0.19651737      -0.50631867       0.49436561       0.43611144
H       -1.11121112      -0.49054824      -1.18132453      -0.04209442      -0.42845978      -1.10436441
H        1.14594897      -1.11347011      -0.42021876      -0.56718185       1.42504814       0.70543186
9
Properties=species:S:1:pos:R:3:forces:R:3 energy=-4209.418242520565 pbc="F F F"
C       -0.28434697       0.03741354      -0.55433082      -0.40429264      -0.64620370       2.66997285
C        0.16732633       1.31357752       0.24359860       1.25227514      -0.20537172      -3.17765663
O        0.12865284      -1.19975930       0.30832419      -0.09927074       2.99033005      -1.30059297
H       -1.41414379       0.13989741      -0.58296900       0.56837139      -0.54640650      -0.19186854
H        0.10002587       0.10026366      -1.58114198       0.37912292      -0.64817918      -0.35714625
H        1.32608111       1.29426538       0.30496864      -1.44628967       0.13414679       0.24811375
H       -0.10615314       2.24835122      -0.50589396       0.28484423      -1.78529905       2.26078972
H       -0.30800020       1.17616525       1.21899658      -0.10374991       0.87384617       0.45666747
H       -0.24652461      -2.01475139      -0.04539088      -0.43101078      -0.16686285      -0.60827940
9
Properties=species:S:1:pos:R:3:forces:R:3 energy=-4209.8571443236715 pbc="F F F"
C        0.44450161       0.14242836      -0.23378595       0.21621098      -0.25376735       0.20656342
C       -0.75678244       1.10586863      -0.25516996       0.64498690       0.22929342      -0.79399966
O        0.26219061      -1.12548886       0.48872177       0.08262634       0.40499547      -1.10698159
H        0.79883316       0.02640558      -1.27191222       0.05026406      -0.49019471      -0.31693778
H        1.24680845       0.73204462       0.25584443       0.31244180      -0.13686594       0.24473995
H       -1.60091934       0.77734538      -0.85750612      -0.70481253      -0.82522057      -0.06015725
H       -1.06084388       1.27035999       0.78232132      -0.36993173       0.49081574       0.28400148
H       -0.51733937       2.07223777      -0.83808261       0.28786574      -0.81192005       1.15849582
H        0.69178984      -1.88941208      -0.00188318      -0.51965154       1.39286393       0.38427556
9
Properties=species:S:1:pos:R:3:forces:R:3 energy=-4209.818122941015 pbc="F F F"
C        0.13367916       0.51830555      -0.26901697       1.65665468      -2.52368511       1.30834974
C       -1.25543483      -0.03689957      -0.24982337      -0.37339702      -0.06538194      -1.39495532
O        1.00834117      -0.38483994       0.50943785       0.16633259       0.20283203      -0.69018141
H        0.49671318       0.59165109      -1.28791497       0.45857620       0.36626236      -0.84635433
H        0.28457811       1.44466321       0.27804810      -0.39703544       0.92581018      -0.04792507
H       -1.73519099       0.33177544      -1.20573203      -0.54335440      -0.00332824       0.99721607
H       -1.31807243      -1.15553605      -0.28340589       0.45638799       0.36001103      -0.12612998
H       -1.68315817       0.25201062       0.69812217      -1.11860015       0.34853027       0.49245137
H        1.31531056      -1.09383460      -0.10306418      -0.30556450       0.38894937       0.30752893
9
Properties=species:S:1:pos:R:3:forces:R:3 energy=-4209.918245035825 pbc="F F F"
C       -0.08212432       0.36365381      -0.47502543      -0.02489405      -0.66852623       0.66882103
C       -1.19493073      -0.17128070       0.52017668       0.21865697       1.25109547      -1.64092431
O        1.17262560      -0.12391220      -0.07535881       1.34859014       1.42819049      -0.44430308
H       -0.20425634       0.12114097      -1.59099039      -0.64224631       0.16554866       0.90974546
H        0.05992872       1.47571607      -0.37713248      -0.63133742      -0.30822282      -0.19111618
H       -0.86904657      -0.01581292       1.55532001       0.02498547       0.49529589       0.31082236
H       -2.17886753       0.30459147       0.29412678       0.18070269       0.04856389       0.35528061
H       -1.37095011      -1.23804742       0.44422661       0.08002078      -0.96153326      -0.41254393
H        1.16618616      -0.97451928       0.33262118      -0.55447828      -1.45041208       0.44421808
9
Properties=species:S:1:pos:R:3:forces:R:3 energy=-4209.365999240216 pbc="F F F"
C        0.34657089       0.12775588       0.44490160       0.80938067       0.49581016      -2.69463514
C       -1.14854068       0.13450255       0.57545768       1.98974980      -0.32532858       1.77882295
O        0.77273609      -0.23477045      -0.91052984       0.76349397       0.35036481       0.78770318
H        0.71202365       1.15601874       0.78961463       0.48080602      -0.93015700      -0.40303881
H        0.76557216      -0.74906877       0.95454211       0.32114956       0.43907798       1.17696879
H       -1.27651835       0.75374567       1.44124574      -1.04485209       0.87405700       0.85974669
H       -1.70195652       0.43839773      -0.26385171      -1.08469567       0.60145975      -1.57607433
H       -1.26633662      -0.85442934       0.91977223      -1.65872972      -1.87397987       0.14552068
H        0.05664545      -0.14466112      -1.54683926      -0.57630248       0.36869586      -0.07501402
9
Properties=species:S:1:pos:R:3:forces:R:3 energy=-4209.54195992231 pbc="F F F"
C        0.55967492       0.17309300      -0.10250635      -1.03373690       0.57588904      -0.48322291
C       -0.80426774       1.04236147      -0.34453374       1.79459050       2.23283354       3.59196865
O        0.21297270      -1.11470670       0.36701468       0.37651278      -0.35429911       1.11475080
H        0.97003135      -0.02551660      -1.11569999      -0.01276738       0.42034646      -0.27021172
H        1.43903516       0.63957152       0.43392353      -0.82665139       0.09896478       0.17206713
H       -1.26478952       0.50484295      -1.11012609      -1.43875073      -0.72967454      -1.93726096
H       -1.55833787       1.15884662       0.55573244       1.38437852      -0.88406317      -1.02977977
H       -0.64072040       2.17882787      -0.53481009       0.15957470      -1.60334515      -0.49817527
H        0.58778780      -1.24738604       1.27219022      -0.40315014       0.24334816      -0.66013600
9
Properties=species:S:1:pos:R:3:forces:R:3 energy=-4209.433144447658 pbc="F F F"
C        0.17813966       0.51706395      -0.27252262      -1.10148061      -0.82781713       4.24364531
C       -1.36002102      -0.00518840      -0.24967126       3.55895506       1.51590509      -0.04379912
O        1.06835760      -0.41554322       0.48881093      -0.94870864       1.08922200      -0.35974620
H        0.56598287       0.67079376      -1.21548827       0.97886579       0.42481550      -3.00867549
H        0.29141614       1.48932846       0.33393894      -0.17924030      -0.96180348      -0.78314924
H       -2.02096687       0.30294657      -1.02048671      -0.63533390       0.72649290      -1.54604728
H       -1.12906861      -1.02937580      -0.36243781      -0.58852972      -2.09646095       0.32906347
H       -1.76710899       0.35225674       0.66525057      -0.69135162      -0.30710933       1.54572609
H        1.18372590      -1.29093375       0.06265602      -0.39317606       0.43675545      -0.37701749
9
Properties=species:S:1:pos:R:3:forces:R:3 energy=-4209.498707349022 pbc="F F F"
C        0.18716540      -0.59544348      -0.17709701      -1.23588281      -0.92272188      -2.58639567
C       -1.17163486       0.13263125      -0.34128967      -0.10364835       0.59002317      -3.20070951
O        0.92304105       0.41853964       0.44281295       1.48002472      -1.30963328       2.44145323
H        0.04353269      -1.67402418       0.22080136       0.50043203       1.32226188       0.69112654
H        0.71384809      -0.89551079      -1.20241857      -1.00555832       0.96167323       1.31534196
H       -0.85234072       1.17797930      -0.71728276      -0.58813192      -1.11287914       0.39206678
H       -1.92548252      -0.23780782      -1.12754622       0.80452689      -0.06035173       0.74513207
H       -1.73796827       0.30668020       0.56243974      -0.19689844      -0.13421364       1.07515004
H        0.83667670       0.19246087       1.41221497       0.34513611       0.66584133      -0.87316544
9
Properties=species:S:1:pos:R:3:forces:R:3 energy=-4210.007965492025 pbc="F F F"
C        0.48327080       0.16372537      -0.17696164       0.08129466      -1.04793156       0.27847983
C       -0.70469060       1.05871664      -0.28957609      -0.83282122      -0.05141370       0.75226508
O        0.20004731      -1.13053735       0.37020240      -0.00361585       0.00892384      -0.47766377
H        0.93271025       0.00941668      -1.18329574      -0.02485548      -0.11300676       0.04786105
H        1.20587701       0.69076290       0.41144527       1.39207039       0.48993513       0.83584335
H       -1.37907457       0.49445964      -0.96247229      -0.59288008       0.69079801      -0.04143257
H       -1.19114408       1.25554964       0.72417450       0.25602915      -0.36893137      -0.82347829
H       -0.37346222       2.05044987      -0.64854214      -0.26865348       0.04140537      -0.47199664
H        0.26713780      -1.12343070       1.34163625      -0.00656809       0.35022098      -0.09987808
9
Properties=species:S:1:pos:R:3:forces:R:3 energy=-4209.74420049234 pbc="F F F"
C       -0.25158638      -0.51574285      -0.00107303      -0.65846679       1.44188692       1.76659637
C       -0.89438466       0.89606604       0.52292918       0.83798770      -1.14969364      -0.77280527
O        1.06456669      -0.31299767      -0.42939532       0.35962577      -1.01431998      -1.34936178
H       -0.24836371      -1.31256290       0.80568480      -0.42426970       0.42941921      -0.09375865
H       -0.93268532      -0.89246062      -0.80902175       0.14362892       0.19391025       0.02111951
H       -1.94180245       0.73179743       0.26152329      -0.80682144       0.32493541       0.52085724
H       -0.74720124       1.29390652       1.58553748       0.00271390      -0.89721555      -0.95728199
H       -0.56516246       1.69471570      -0.18909375       0.14690872      -0.28500709       0.21482207
H        1.19145970      -1.08053384      -1.05716419       0.39869287       0.95608447       0.64981250
9
Properties=species:S:1:pos:R:3:forces:R:3 energy=-4209.727241251919 pbc="F F F"
C       -0.22026813       0.52190175       0.29185473       1.06938161      -2.23622909      -0.05729628
C       -0.51629435       0.03349239      -1.13344657      -0.21505413       2.28410706      -0.56467672
O        0.65045489      -0.49805267       0.72225970       1.47880627      -1.70104217       1.10460347
H        0.36977610       1.42273542       0.43460858      -0.32284345       1.44774153      -0.63691975
H       -1.07196346       0.48872497       0.96375832      -1.21971884       0.57760798       0.18097513
H       -1.34504117       0.68283742      -1.54935895       0.83272419      -0.05248235      -0.31909047
H        0.45734063       0.04051096      -1.73967401      -1.19484748       0.10552125       0.42959667
H       -0.97118967      -0.95315581      -1.18230286       0.10273556      -0.79659380       0.49124681
H        1.01212234      -0.39550556       1.63675764      -0.53118361       0.37136965      -0.62843886
9
Properties=species:S:1:pos:R:3:forces:R:3 energy=-4209.259609450625 pbc="F F F"
C       -0.14168560       0.44561335       0.18305089       3.03259735       0.62807629       0.41049892
C       -0.69579240       0.05523627      -1.18867760       1.37764660      -1.13464513       0.99156452
O        0.76638867      -0.46632250       0.86593549       0.50710816      -0.77016573      -0.04823365
H        0.26415108       1.50606987       0.13115456       0.15524018      -0.57965155       0.03412076
H       -1.04672186       0.52756420       0.66967781      -2.57788886       0.45906661       2.31492812
H       -1.18358133       0.97649857      -1.50821759      -0.66292004       0.05025716      -0.49271568
H        0.03292046      -0.29553850      -1.92571631       0.53280480       0.21340045      -0.36793373
H       -1.32484610      -0.82284775      -0.98657565      -0.72103419       0.01274573      -0.39900043
H        1.07138132      -0.45930635       1.85750121      -1.64355393       1.12091615      -2.44322889
9
Properties=species:S:1:pos:R:3:forces:R:3 energy=-4209.716132556192 pbc="F F F"
C       -0.30428810      -0.51103749      -0.01419389       2.24952931       1.68826245       0.76674457